#INFO: **** input file is /Users/allen/Desktop/Coding/pyscf/main.py ****
from Tkinter import *
import ttk
import pyscf
import threading
from pyscf import gto, scf

def pyscfThread():
    mol = gto.Mole()
    mol.atom = xyzInput.get()
    mol.basis = 'cc-pVTZ'
    mol.verbose = 5
    mol.output = 'output.txt'
    mol.build()

    mf = scf.RHF(mol)
    mf.kernel()
    

def calculate(*args):
    x = threading.Thread(target=pyscfThread)
    x.start()


root = Tk()
root.title("PySCF")

mainframe = ttk.Frame(root, padding="3 3 12 12")
mainframe.grid(column=0, row=0, sticky=(N, W, E, S))
root.columnconfigure(0, weight=1)
root.rowconfigure(0, weight=1)

xyzInput = StringVar()
xyzInput = ttk.Entry(mainframe, width=7, textvariable=xyzInput)
xyzInput.grid(column=1, row=1, sticky=(W, E))

energyOutput = StringVar()
ttk.Label(mainframe, textvariable=energyOutput).grid(column=1, row=2, sticky=(W, E))

ttk.Button(mainframe, text="Calculate", command=calculate).grid(
    column=1, row=3, sticky=W)

for child in mainframe.winfo_children():
    child.grid_configure(padx=5, pady=5)

xyzInput.focus()
# root.bind("<Return>", calculate)

root.mainloop()


# mol = gto.Mole()
# mol.atom = """
# C	-0.4218040	0.6407370	0.0000000
# C	0.4218040	-0.6407370	0.0000000
# C	0.4218040	1.9198930	0.0000000
# C	-0.4218040	-1.9198930	0.0000000
# H	-1.0831630	0.6373520	0.8782670
# H	-1.0831630	0.6373520	-0.8782670
# H	1.0831630	-0.6373520	0.8782670
# H	1.0831630	-0.6373520	-0.8782670
# H	-0.2088070	2.8163860	0.0000000
# H	1.0686920	1.9672850	0.8847760
# H	1.0686920	1.9672850	-0.8847760
# H	0.2088070	-2.8163860	0.0000000
# H	-1.0686920	-1.9672850	0.8847760
# H	-1.0686920	-1.9672850	-0.8847760
# """
# mol.basis = 'cc-pVTZ'
# mol.verbose = 5
# mol.output = 'output.txt'
# mol.build()

# mf = scf.RHF(mol)
# mf.kernel()
#INFO: ******************** input file end ********************


System: ('Darwin', 'Allens-MacBook-Pro.local', '22.5.0', 'Darwin Kernel Version 22.5.0: Thu Jun  8 22:22:23 PDT 2023; root:xnu-8796.121.3~7/RELEASE_ARM64_T6020', 'x86_64', 'i386')  Threads 1
Python 2.7.18 (v2.7.18:8d21aa21f2, Apr 19 2020, 20:48:48) 
[GCC 4.2.1 Compatible Apple LLVM 6.0 (clang-600.0.57)]
numpy 1.16.6  scipy 1.2.3
Date: Tue Aug 29 17:16:12 2023
PySCF version 1.7.6
PySCF path  /Library/Frameworks/Python.framework/Versions/2.7/lib/python2.7/site-packages/pyscf

[CONFIG] conf_file None
[INPUT] verbose = 5
[INPUT] max_memory = 4000 
[INPUT] num. atoms = 8
[INPUT] num. electrons = 18
[INPUT] charge = 0
[INPUT] spin (= nelec alpha-beta = 2S) = 0
[INPUT] symmetry False subgroup None
[INPUT] Mole.unit = angstrom
[INPUT]  1 C1     0.000000000000   0.000000000000   0.768000000000 AA    0.000000000000   0.000000000000   1.451309663666 Bohr
[INPUT]  2 C2     0.000000000000   0.000000000000  -0.768000000000 AA    0.000000000000   0.000000000000  -1.451309663666 Bohr
[INPUT]  3 H3    -1.019200000000   0.000000000000   1.157300000000 AA   -1.926008866157   0.000000000000   2.186980043959 Bohr
[INPUT]  4 H4     0.509600000000   0.882600000000   1.157300000000 AA    0.963004433078   1.667872277541   2.186980043959 Bohr
[INPUT]  5 H5     0.509600000000  -0.882600000000   1.157300000000 AA    0.963004433078  -1.667872277541   2.186980043959 Bohr
[INPUT]  6 H6     1.019200000000   0.000000000000  -1.157300000000 AA    1.926008866157   0.000000000000  -2.186980043959 Bohr
[INPUT]  7 H7    -0.509600000000  -0.882600000000  -1.157300000000 AA   -0.963004433078  -1.667872277541  -2.186980043959 Bohr
[INPUT]  8 H8    -0.509600000000   0.882600000000  -1.157300000000 AA   -0.963004433078   1.667872277541  -2.186980043959 Bohr
[INPUT] ---------------- BASIS SET ---------------- 
[INPUT] l, kappa, [nprim/nctr], expnt,             c_1 c_2 ...
[INPUT] H8
[INPUT] 0    0    [3    /1   ]  33.87             0.006068
                                5.095             0.045308
                                1.159             0.202822
[INPUT] 0    0    [1    /1   ]  0.3258               1
[INPUT] 0    0    [1    /1   ]  0.1027               1
[INPUT] 1    0    [1    /1   ]  1.407                1
[INPUT] 1    0    [1    /1   ]  0.388                1
[INPUT] 2    0    [1    /1   ]  1.057                1
[INPUT] H3
[INPUT] 0    0    [3    /1   ]  33.87             0.006068
                                5.095             0.045308
                                1.159             0.202822
[INPUT] 0    0    [1    /1   ]  0.3258               1
[INPUT] 0    0    [1    /1   ]  0.1027               1
[INPUT] 1    0    [1    /1   ]  1.407                1
[INPUT] 1    0    [1    /1   ]  0.388                1
[INPUT] 2    0    [1    /1   ]  1.057                1
[INPUT] H6
[INPUT] 0    0    [3    /1   ]  33.87             0.006068
                                5.095             0.045308
                                1.159             0.202822
[INPUT] 0    0    [1    /1   ]  0.3258               1
[INPUT] 0    0    [1    /1   ]  0.1027               1
[INPUT] 1    0    [1    /1   ]  1.407                1
[INPUT] 1    0    [1    /1   ]  0.388                1
[INPUT] 2    0    [1    /1   ]  1.057                1
[INPUT] H7
[INPUT] 0    0    [3    /1   ]  33.87             0.006068
                                5.095             0.045308
                                1.159             0.202822
[INPUT] 0    0    [1    /1   ]  0.3258               1
[INPUT] 0    0    [1    /1   ]  0.1027               1
[INPUT] 1    0    [1    /1   ]  1.407                1
[INPUT] 1    0    [1    /1   ]  0.388                1
[INPUT] 2    0    [1    /1   ]  1.057                1
[INPUT] H4
[INPUT] 0    0    [3    /1   ]  33.87             0.006068
                                5.095             0.045308
                                1.159             0.202822
[INPUT] 0    0    [1    /1   ]  0.3258               1
[INPUT] 0    0    [1    /1   ]  0.1027               1
[INPUT] 1    0    [1    /1   ]  1.407                1
[INPUT] 1    0    [1    /1   ]  0.388                1
[INPUT] 2    0    [1    /1   ]  1.057                1
[INPUT] H5
[INPUT] 0    0    [3    /1   ]  33.87             0.006068
                                5.095             0.045308
                                1.159             0.202822
[INPUT] 0    0    [1    /1   ]  0.3258               1
[INPUT] 0    0    [1    /1   ]  0.1027               1
[INPUT] 1    0    [1    /1   ]  1.407                1
[INPUT] 1    0    [1    /1   ]  0.388                1
[INPUT] 2    0    [1    /1   ]  1.057                1
[INPUT] C2
[INPUT] 0    0    [8    /2   ]  8236              0.000531 -0.000113
                                1235              0.004108 -0.000878
                                280.8             0.021087 -0.00454
                                79.27             0.081853 -0.018133
                                25.59             0.234817 -0.05576
                                8.997             0.434401 -0.126895
                                3.319             0.346129 -0.170352
                                0.3643            -0.008983 0.598684
[INPUT] 0    0    [1    /1   ]  0.9059               1
[INPUT] 0    0    [1    /1   ]  0.1285               1
[INPUT] 1    0    [3    /1   ]  18.71             0.014031
                                4.133             0.086866
                                1.2               0.290216
[INPUT] 1    0    [1    /1   ]  0.3827               1
[INPUT] 1    0    [1    /1   ]  0.1209               1
[INPUT] 2    0    [1    /1   ]  1.097                1
[INPUT] 2    0    [1    /1   ]  0.318                1
[INPUT] 3    0    [1    /1   ]  0.761                1
[INPUT] C1
[INPUT] 0    0    [8    /2   ]  8236              0.000531 -0.000113
                                1235              0.004108 -0.000878
                                280.8             0.021087 -0.00454
                                79.27             0.081853 -0.018133
                                25.59             0.234817 -0.05576
                                8.997             0.434401 -0.126895
                                3.319             0.346129 -0.170352
                                0.3643            -0.008983 0.598684
[INPUT] 0    0    [1    /1   ]  0.9059               1
[INPUT] 0    0    [1    /1   ]  0.1285               1
[INPUT] 1    0    [3    /1   ]  18.71             0.014031
                                4.133             0.086866
                                1.2               0.290216
[INPUT] 1    0    [1    /1   ]  0.3827               1
[INPUT] 1    0    [1    /1   ]  0.1209               1
[INPUT] 2    0    [1    /1   ]  1.097                1
[INPUT] 2    0    [1    /1   ]  0.318                1
[INPUT] 3    0    [1    /1   ]  0.761                1

nuclear repulsion = 42.1780189499367
number of shells = 54
number of NR pGTOs = 180
number of NR cGTOs = 144
basis = cc-pVTZ
ecp = {}
CPU time:         6.94


******** <class 'pyscf.scf.hf.RHF'> ********
method = RHF
initial guess = minao
damping factor = 0
level_shift factor = 0
DIIS = <class 'pyscf.scf.diis.CDIIS'>
diis_start_cycle = 1
diis_space = 8
SCF conv_tol = 1e-09
SCF conv_tol_grad = None
SCF max_cycles = 50
direct_scf = True
direct_scf_tol = 1e-13
chkfile to save SCF result = /var/folders/ps/y7p6rrk51xd7xy3_qgbkdmk00000gn/T/tmpyPrS5o
max_memory 4000 MB (current use 0 MB)
Set gradient conv threshold to 3.16228e-05
E1 = -187.41260726183415  E_coul = 65.97225884722455
init E= -79.2623294646729
cond(S) = 5978.4051551511975
    CPU time for initialize scf      2.99 sec, wall time      1.50 sec
  HOMO = -0.386599334703025  LUMO = 0.0963372754150185
  mo_energy =
[-11.32044142 -11.31741169  -1.41379916  -1.00833288  -0.55249011
  -0.55248395  -0.42070514  -0.38660379  -0.38659933   0.09633728
   0.13952872   0.17865803   0.17866523   0.20692301   0.20692504
   0.28486607   0.36043383   0.37794446   0.37795467   0.3818592
   0.38186335   0.54183765   0.54623666   0.54624357   0.54829018
   0.59692075   0.60272297   0.60272981   0.68249556   0.68250957
   0.76372418   0.78706045   0.92641326   0.92641613   1.012396
   1.0847609    1.09982801   1.09984554   1.19032571   1.2154531
   1.21546198   1.24640132   1.24640543   1.25386604   1.30116799
   1.33082365   1.33083604   1.41157079   1.45673772   1.45675317
   1.54020699   1.54022153   1.5606823    1.56069168   1.70722737
   1.7178826    1.71791503   1.76643803   2.39811151   2.39813442
   2.49791851   2.55281451   2.55282127   2.60497895   2.63828512
   2.78151575   2.78153252   2.80243215   2.98361629   2.98361658
   3.00768468   3.00792117   3.09621191   3.11305018   3.1130564
   3.15560574   3.15561101   3.21865604   3.29514003   3.29515399
   3.32729113   3.32730082   3.35746845   3.35749583   3.49038977
   3.49043874   3.55445692   3.58703978   3.68810381   3.68815224
   3.71369318   3.71783875   3.7178789    3.81604129   3.82287029
   3.82289522   4.00222129   4.00224932   4.04509557   4.04721775
   4.04723208   4.06800592   4.16356064   4.16358703   4.25267218
   4.27572673   4.27573772   4.31428853   4.33500026   4.3596553
   4.35968424   4.40303806   4.52329175   4.57459662   4.57460809
   4.59074106   4.60969524   4.60972995   4.79957652   5.09207806
   5.09210116   5.11276149   5.11394039   5.11395036   5.12786624
   5.13846027   5.23930393   5.23930822   5.57380024   5.61066014
   5.61076971   5.61457938   5.61464869   5.62337784   5.63481741
   5.72089187   5.72703665   5.7270861    6.17386728   6.17391497
   6.196988     6.19705773  13.7686507   13.80235109]
E1 = -188.70899640890266  E_coul = 67.2889150252544
cycle= 1 E= -79.2420624337115  delta_E= 0.0203  |g|= 0.224  |ddm|= 1.48
    CPU time for cycle= 1      0.44 sec, wall time      0.22 sec
  HOMO = -0.495208988485901  LUMO = 0.136375700872887
  mo_energy =
[-11.23199324 -11.23142013  -1.03424575  -0.85845312  -0.60671866
  -0.60671686  -0.51236606  -0.49521037  -0.49520899   0.1363757
   0.17664479   0.20486574   0.20487227   0.23220735   0.2322093
   0.33087286   0.38036401   0.39704871   0.39705262   0.40686401
   0.40687367   0.59509506   0.59510309   0.6147458    0.63051301
   0.66166345   0.66802163   0.66802832   0.71465438   0.71466933
   0.80271849   0.81643644   0.95725543   0.95726072   1.03842048
   1.11011311   1.1341793    1.13419694   1.22969139   1.25014461
   1.25015273   1.28470689   1.28471002   1.29175607   1.35029139
   1.35916136   1.35917415   1.44102099   1.49179411   1.49180869
   1.57782002   1.57783423   1.5945718    1.59458151   1.75436434
   1.75439644   1.76445228   1.82806333   2.45211686   2.45213667
   2.56580053   2.61093415   2.61093908   2.66354225   2.69526322
   2.84661879   2.84663473   2.8792416    3.04812432   3.04812525
   3.07366781   3.07489034   3.16175845   3.17984222   3.17984911
   3.22236446   3.22236517   3.28868319   3.36408179   3.36409506
   3.39235753   3.39236752   3.42503852   3.42506733   3.54881722
   3.54886776   3.60482883   3.63710409   3.73879201   3.73884257
   3.76671079   3.77034437   3.7703862    3.87023077   3.87178439
   3.87180936   4.05133086   4.05135757   4.09922005   4.09923685
   4.11007514   4.11611667   4.2129047    4.21293398   4.30346168
   4.32143238   4.32144456   4.3714608    4.38492144   4.40990243
   4.40992938   4.43819552   4.57046888   4.61589129   4.61590299
   4.65270841   4.66560633   4.66564433   4.86103166   5.14490288
   5.14492675   5.16757298   5.16759085   5.17371651   5.18642505
   5.202825     5.30265673   5.30266316   5.64083529   5.67032929
   5.67044143   5.67952473   5.67959457   5.68696662   5.69901737
   5.79051106   5.79056451   5.79911165   6.2527178    6.25277085
   6.27541872   6.27549281  13.83372911  13.87035376]
E1 = -189.03076717749073  E_coul = 67.5942496520922
cycle= 2 E= -79.2584985754618  delta_E= -0.0164  |g|= 0.0574  |ddm|= 0.144
    CPU time for cycle= 2      0.44 sec, wall time      0.22 sec
  HOMO = -0.482892379915031  LUMO = 0.142011273014261
  mo_energy =
[-11.19521596 -11.19463128  -1.00958405  -0.83662492  -0.59129388
  -0.59129238  -0.49753631  -0.48289349  -0.48289238   0.14201127
   0.18293431   0.21007819   0.21008413   0.23766698   0.23766865
   0.34116223   0.38661614   0.40286731   0.40287136   0.41512588
   0.41513599   0.60710293   0.60711074   0.62771512   0.65119309
   0.67540379   0.68239296   0.68239919   0.72743221   0.72744712
   0.8125893    0.82398205   0.96745542   0.96746036   1.04759162
   1.11927378   1.14484308   1.14486035   1.24203937   1.26124026
   1.26124866   1.2960034    1.29600658   1.30165251   1.36484923
   1.36880466   1.36881679   1.45029539   1.5026926    1.50270608
   1.58958788   1.58960185   1.60513791   1.60514694   1.76575747
   1.76578959   1.78131141   1.84580288   2.46976291   2.46978352
   2.58715221   2.62897459   2.62897981   2.68151778   2.71320596
   2.86729583   2.86731221   2.90335826   3.06870246   3.06870301
   3.09329405   3.09682749   3.18167431   3.2004165    3.20042313
   3.24332053   3.2433212    3.30895972   3.38562149   3.38563461
   3.41289858   3.41290827   3.44722652   3.4472547    3.56789289
   3.56794255   3.62226926   3.6543404    3.756361     3.75641072
   3.78461535   3.78811693   3.78815799   3.88838045   3.88859296
   3.88861519   4.06935652   4.06938432   4.11793152   4.11794729
   4.13197695   4.13376896   4.22917032   4.22919953   4.32094074
   4.33920814   4.33921852   4.38661095   4.40878704   4.4271931
   4.42722023   4.45309967   4.58742037   4.63200411   4.63201594
   4.67330541   4.68458325   4.68462074   4.88248765   5.16376198
   5.16378502   5.18672118   5.18673875   5.1927125    5.20693156
   5.22470396   5.32297219   5.32297907   5.6628       5.69050389
   5.69061632   5.70089894   5.70096867   5.70660892   5.72073399
   5.81153929   5.81159247   5.82460102   6.27831439   6.27836741
   6.30071766   6.30079157  13.86059061  13.89828467]
E1 = -188.90902468785333  E_coul = 67.47131845045139
cycle= 3 E= -79.2596872874652  delta_E= -0.00119  |g|= 0.0157  |ddm|= 0.0526
    CPU time for cycle= 3      0.44 sec, wall time      0.22 sec
  HOMO = -0.488068037266181  LUMO = 0.140987084876276
  mo_energy =
[-11.21354282 -11.21296231  -1.01646788  -0.84174013  -0.59667785
  -0.59667652  -0.50593878  -0.48806897  -0.48806804   0.14098708
   0.18215005   0.20903056   0.20903647   0.23656311   0.23656472
   0.33904158   0.38447018   0.40146526   0.40146932   0.41303794
   0.41304807   0.60363371   0.60364142   0.62475045   0.64463935
   0.67248232   0.6784701    0.67847625   0.72448625   0.72450101
   0.81004935   0.82206969   0.96511212   0.96511692   1.04605967
   1.11786566   1.14189012   1.14190738   1.23823787   1.25761066
   1.2576192    1.29299678   1.29300001   1.29930117   1.3594723
   1.36685502   1.36686723   1.44844187   1.49934251   1.49935612
   1.58624476   1.58625867   1.60212932   1.60213836   1.76292251
   1.76295462   1.77743148   1.84146575   2.46613848   2.46615935
   2.57799413   2.6250431    2.62504866   2.67705687   2.70891559
   2.85966238   2.8596789    2.8940882    3.06215217   3.06215246
   3.0875184    3.08907004   3.17627296   3.1929494    3.19295589
   3.23763671   3.23763768   3.30223508   3.3789885    3.37900179
   3.40637132   3.40638081   3.44006567   3.44009386   3.56282283
   3.56287262   3.62023935   3.65226618   3.75274333   3.75279325
   3.78112414   3.78431724   3.78435866   3.88409562   3.88537604
   3.88540044   4.06712638   4.06715416   4.11489759   4.11491329
   4.12571266   4.13202712   4.22619168   4.22622044   4.31848962
   4.33769166   4.33770217   4.3855502    4.40239363   4.42381124
   4.42383876   4.45215484   4.58449548   4.63041444   4.63042599
   4.66838858   4.68005229   4.68008969   4.87866632   5.15993906
   5.15996234   5.18254693   5.18256357   5.18787501   5.20194206
   5.21911661   5.31784597   5.31785238   5.65756131   5.68679165
   5.68690402   5.69632694   5.69639657   5.70139658   5.71597987
   5.80640569   5.80645834   5.81676913   6.27206409   6.27211691
   6.29450489   6.29457863  13.84935339  13.88639453]
E1 = -188.97679567669627  E_coul = 67.5390253250502
cycle= 4 E= -79.2597514017093  delta_E= -6.41e-05  |g|= 0.00279  |ddm|= 0.0102
    CPU time for cycle= 4      0.44 sec, wall time      0.22 sec
  HOMO = -0.48777417626475  LUMO = 0.141126694316875
  mo_energy =
[-11.21202278 -11.21144054  -1.01560429  -0.84127366  -0.59620293
  -0.59620161  -0.50540359  -0.4877751   -0.48777418   0.14112669
   0.18223562   0.20919504   0.20920092   0.23673919   0.23674078
   0.33917996   0.38446628   0.40154552   0.40154958   0.41324522
   0.41325535   0.60402932   0.60403702   0.62494852   0.64522352
   0.67261208   0.67885352   0.67885966   0.72475993   0.72477471
   0.81026823   0.82224427   0.96532231   0.96532711   1.04618987
   1.1179793    1.14219185   1.14220909   1.23837472   1.25793285
   1.25794138   1.29324907   1.29325231   1.29951489   1.35975736
   1.36700885   1.36702102   1.44854574   1.49971927   1.49973284
   1.58657359   1.58658749   1.6024383    1.60244731   1.76311991
   1.76315202   1.77767731   1.84169361   2.46643429   2.46645514
   2.57905692   2.62537376   2.6253793    2.6774138    2.70917967
   2.86041398   2.86043048   2.89491332   3.06260643   3.06260676
   3.08799728   3.08970211   3.1766927    3.19372963   3.19373612
   3.23793379   3.23793473   3.30251215   3.37944292   3.3794562
   3.40700316   3.40701266   3.44067961   3.44070777   3.56322142
   3.56327117   3.62029468   3.65232664   3.75313241   3.75318228
   3.78150094   3.78466891   3.78471027   3.88455132   3.88566394
   3.88568825   4.06742826   4.06745606   4.11528929   4.11530496
   4.12630091   4.13212294   4.22639268   4.22642146   4.31861448
   4.3378779    4.33788835   4.38572334   4.40287782   4.424107
   4.42413451   4.45231855   4.58475466   4.63061006   4.63062164
   4.6688325    4.68053009   4.68056749   4.87888776   5.16032837
   5.1603516    5.182987     5.1830037    5.18842262   5.20240868
   5.21962441   5.31815845   5.31816494   5.65810188   5.68699125
   5.68710361   5.69662986   5.69669952   5.70193608   5.7164173
   5.8069062    5.80695893   5.81753422   6.27253591   6.27258876
   6.29489613   6.2949699   13.85024074  13.88742875]
E1 = -188.96771388441573  E_coul = 67.52994045857368
cycle= 5 E= -79.2597544759053  delta_E= -3.07e-06  |g|= 0.000422  |ddm|= 0.00304
    CPU time for cycle= 5      0.44 sec, wall time      0.22 sec
  HOMO = -0.487775971371273  LUMO = 0.141121135305669
  mo_energy =
[-11.21196695 -11.21138418  -1.0156431   -0.84125888  -0.59620321
  -0.59620189  -0.5055007   -0.48777689  -0.48777597   0.14112114
   0.18224702   0.20919914   0.20920501   0.23674087   0.23674245
   0.33920314   0.384449     0.40154176   0.40154582   0.41322714
   0.41323728   0.60401862   0.60402631   0.62494723   0.64518364
   0.67262519   0.6788597    0.67886583   0.72477053   0.72478531
   0.81024431   0.82221457   0.96531282   0.9653176    1.04617795
   1.11797387   1.14217538   1.14219262   1.23839366   1.25791913
   1.25792767   1.29324477   1.29324801   1.29950873   1.35975653
   1.36701057   1.36702274   1.44855616   1.49970638   1.49971994
   1.5865609    1.58657479   1.60243484   1.60244384   1.76312575
   1.76315786   1.77771017   1.84173344   2.46644234   2.4664632
   2.57897988   2.62537612   2.62538166   2.67740343   2.70918937
   2.8603956    2.86041211   2.8949048    3.06261826   3.06261859
   3.08796013   3.08970383   3.17666593   3.19368653   3.19369302
   3.23795759   3.23795854   3.30254107   3.37945204   3.37946532
   3.40697964   3.40698914   3.44067686   3.44070502   3.56323034
   3.56328008   3.62033549   3.65236609   3.75313428   3.75318413
   3.78149797   3.7846707    3.78471206   3.88454348   3.88567643
   3.88570075   4.06744062   4.06746843   4.11529954   4.1153152
   4.1263248    4.13216709   4.22640708   4.22643585   4.31865088
   4.33791147   4.3379219    4.385755     4.4029204    4.42412473
   4.42415225   4.45235155   4.58478369   4.63063784   4.63064942
   4.66884994   4.68053094   4.68056833   4.87894024   5.16033696
   5.16036019   5.1829969    5.18301357   5.18838408   5.20241844
   5.21963782   5.31819069   5.31819717   5.65810884   5.68703535
   5.6871477    5.69666305   5.6967327    5.70189832   5.71642854
   5.80690659   5.80695931   5.81753424   6.27255729   6.27261014
   6.2949314    6.29500516  13.85027427  13.88744758]
E1 = -188.967432648506  E_coul = 67.52965910255189
cycle= 6 E= -79.2597545960174  delta_E= -1.2e-07  |g|= 0.000104  |ddm|= 0.000922
    CPU time for cycle= 6      0.44 sec, wall time      0.22 sec
  HOMO = -0.487791097185888  LUMO = 0.141114495597249
  mo_energy =
[-11.21203139 -11.21144862  -1.0156728   -0.84129017  -0.59621667
  -0.59621536  -0.50553614  -0.48779201  -0.4877911    0.1411145
   0.18223984   0.2091965    0.20920236   0.23673921   0.23674079
   0.33919341   0.38443406   0.40153506   0.40153912   0.41322203
   0.41323217   0.60401068   0.60401836   0.62493094   0.64515895
   0.67260834   0.67885097   0.67885709   0.72476235   0.72477713
   0.81023439   0.82220677   0.96530441   0.96530919   1.04617089
   1.11796751   1.1421671    1.14218434   1.23837609   1.25790889
   1.25791743   1.29323399   1.29323724   1.29949946   1.3597333
   1.36700228   1.36701445   1.44854703   1.49969732   1.49971087
   1.58655067   1.58656456   1.60242605   1.60243504   1.76311476
   1.76314687   1.77769415   1.84171457   2.46643072   2.46645158
   2.57895479   2.62536371   2.62536926   2.67738788   2.70917282
   2.86037372   2.86039023   2.89487617   3.06259622   3.06259654
   3.08794177   3.0896772    3.17664853   3.19366528   3.19367176
   3.237936     3.23793696   3.30251268   3.37942818   3.37944146
   3.40696053   3.40697003   3.44065511   3.44068327   3.56321343
   3.56326317   3.62032604   3.65235651   3.75312507   3.75317493
   3.78148898   3.78465908   3.78470043   3.88453164   3.88566638
   3.8856907    4.06743769   4.06746551   4.11529402   4.11530967
   4.12630727   4.13216085   4.22639564   4.22642441   4.31864101
   4.3379092    4.33791963   4.385754     4.40289909   4.42411367
   4.42414119   4.4523508    4.58477537   4.63063411   4.63064569
   4.6688358    4.68051918   4.68055657   4.87892658   5.1603272
   5.16035043   5.18298625   5.18300292   5.18837197   5.20240384
   5.21962116   5.31817208   5.31817855   5.65809633   5.68702277
   5.68713513   5.69664857   5.69671823   5.70188418   5.71641643
   5.8068928    5.80694551   5.81751232   6.2725388    6.27259165
   6.29491112   6.29498488  13.85023428  13.88740759]
E1 = -188.9675417314173  E_coul = 67.52976817937133
cycle= 7 E= -79.2597546021092  delta_E= -6.09e-09  |g|= 6.55e-06  |ddm|= 0.000277
    CPU time for cycle= 7      0.30 sec, wall time      0.22 sec
  HOMO = -0.487791582622036  LUMO = 0.141113842102246
  mo_energy =
[-11.21203174 -11.21144896  -1.01567418  -0.84129127  -0.59621711
  -0.5962158   -0.50553683  -0.48779249  -0.48779158   0.14111384
   0.18223919   0.20919607   0.20920193   0.23673882   0.2367404
   0.33919281   0.38443349   0.40153452   0.40153857   0.4132212
   0.41323134   0.60401      0.60401769   0.62492992   0.6451578
   0.67260731   0.67885019   0.67885632   0.72476133   0.72477611
   0.81023344   0.82220598   0.96530348   0.96530827   1.04617008
   1.1179667    1.14216615   1.14218339   1.23837506   1.25790789
   1.25791643   1.2932331    1.29323634   1.29949861   1.3597322
   1.3670014    1.36701357   1.44854627   1.4996965    1.49971005
   1.58654975   1.58656364   1.60242524   1.60243424   1.76311391
   1.76314601   1.77769302   1.8417134    2.46642943   2.4664503
   2.57895329   2.62536236   2.62536791   2.67738652   2.70917157
   2.86037236   2.86038887   2.89487464   3.06259507   3.0625954
   3.08794023   3.08967587   3.17664701   3.19366372   3.1936702
   3.2379348    3.23793575   3.30251156   3.37942689   3.37944017
   3.4069591    3.4069686    3.44065374   3.44068189   3.56321219
   3.56326193   3.62032486   3.65235534   3.7531238    3.75317365
   3.78148759   3.78465779   3.78469914   3.8845302    3.88566518
   3.8856895    4.06743634   4.06746416   4.11529263   4.11530828
   4.12630598   4.1321596    4.22639447   4.22642324   4.31863975
   4.33790794   4.33791837   4.38575292   4.40289788   4.42411242
   4.42413994   4.45234972   4.58477423   4.63063289   4.63064447
   4.66883449   4.68051781   4.6805552    4.87892533   5.16032587
   5.1603491    5.18298491   5.18300157   5.18837036   5.20240249
   5.21961975   5.31817079   5.31817726   5.65809484   5.6870216
   5.68713396   5.6966473    5.69671696   5.70188253   5.71641495
   5.80689131   5.80694402   5.81751071   6.27253728   6.27259012
   6.29490971   6.29498348  13.85023359  13.88740676]
E1 = -188.96754650929216  E_coul = 67.5297729572297
cycle= 8 E= -79.2597546021257  delta_E= -1.65e-11  |g|= 7.15e-07  |ddm|= 1.22e-05
    CPU time for cycle= 8      0.22 sec, wall time      0.22 sec
  HOMO = -0.48779157050733  LUMO = 0.141113864651963
  mo_energy =
[-11.21203186 -11.21144909  -1.01567419  -0.84129131  -0.59621712
  -0.59621581  -0.50553687  -0.48779248  -0.48779157   0.14111386
   0.18223922   0.20919609   0.20920196   0.23673885   0.23674043
   0.33919285   0.38443355   0.40153456   0.40153862   0.41322126
   0.4132314    0.60401002   0.60401771   0.62492996   0.64515788
   0.67260735   0.67885023   0.67885636   0.72476137   0.72477615
   0.81023351   0.82220604   0.96530352   0.96530831   1.04617013
   1.11796675   1.1421662    1.14218344   1.23837512   1.25790794
   1.25791649   1.29323314   1.29323639   1.29949865   1.35973226
   1.36700144   1.36701361   1.44854632   1.49969653   1.49971008
   1.5865498    1.58656369   1.60242528   1.60243427   1.76311396
   1.76314607   1.77769309   1.84171347   2.4664295    2.46645037
   2.5789533    2.62536243   2.62536798   2.67738659   2.70917164
   2.86037239   2.86038889   2.89487467   3.06259513   3.06259546
   3.08794029   3.0896759    3.17664708   3.19366374   3.19367023
   3.23793488   3.23793584   3.30251166   3.37942695   3.37944023
   3.40695914   3.40696863   3.44065378   3.44068193   3.56321225
   3.56326199   3.62032495   3.65235543   3.75312386   3.75317371
   3.78148765   3.78465785   3.7846992    3.88453026   3.88566526
   3.88568957   4.06743641   4.06746423   4.11529269   4.11530834
   4.12630603   4.13215968   4.22639455   4.22642332   4.31863983
   4.33790802   4.33791845   4.38575299   4.40289794   4.42411248
   4.42414      4.4523498    4.5847743    4.63063296   4.63064454
   4.66883455   4.68051787   4.68055526   4.87892541   5.16032594
   5.16034917   5.18298496   5.18300162   5.18837042   5.20240255
   5.21961981   5.31817087   5.31817734   5.6580949    5.68702169
   5.68713405   5.69664739   5.69671704   5.70188259   5.71641503
   5.80689136   5.80694408   5.81751073   6.27253735   6.2725902
   6.2949098    6.29498356  13.85023355  13.88740671]
E1 = -188.96754713615624  E_coul = 67.5297735840933
Extra cycle  E= -79.2597546021262  delta_E= -4.55e-13  |g|= 2.05e-07  |ddm|= 8.85e-07
    CPU time for scf_cycle      6.37 sec, wall time      3.46 sec
    CPU time for SCF      6.37 sec, wall time      3.46 sec
converged SCF energy = -79.2597546021262
